
Host: germain

Timers On : Wed Nov 13 13:47:36 2024
Timers Off: Wed Nov 13 13:47:37 2024

Wall Time:        0.25 seconds

                                                       Time (seconds)
Module                                       User      System        Wall        Calls

--------------------------------------------------------------------------------------

**************************************************************************************

Host: germain

Timers On : Wed Nov 13 13:47:50 2024
Timers Off: Wed Nov 13 13:47:50 2024

Wall Time:        0.25 seconds

                                                       Time (seconds)
Module                                       User      System        Wall        Calls

--------------------------------------------------------------------------------------

**************************************************************************************

Host: germain

Timers On : Wed Nov 13 13:48:08 2024
Timers Off: Wed Nov 13 13:48:08 2024

Wall Time:        0.28 seconds

                                                       Time (seconds)
Module                                       User      System        Wall        Calls

--------------------------------------------------------------------------------------

**************************************************************************************

Host: germain

Timers On : Wed Nov 13 13:52:28 2024
Timers Off: Wed Nov 13 13:52:28 2024

Wall Time:        0.28 seconds

                                                       Time (seconds)
Module                                       User      System        Wall        Calls

--------------------------------------------------------------------------------------

**************************************************************************************

Host: germain

Timers On : Wed Nov 13 13:52:54 2024
Timers Off: Wed Nov 13 13:52:55 2024

Wall Time:        0.31 seconds

                                                       Time (seconds)
Module                                       User      System        Wall        Calls

--------------------------------------------------------------------------------------

**************************************************************************************

Host: germain

Timers On : Wed Nov 13 13:53:17 2024
Timers Off: Wed Nov 13 13:53:18 2024

Wall Time:        0.35 seconds

                                                       Time (seconds)
Module                                       User      System        Wall        Calls

--------------------------------------------------------------------------------------

**************************************************************************************

Host: germain

Timers On : Wed Nov 13 13:53:43 2024
Timers Off: Wed Nov 13 13:53:43 2024

Wall Time:        0.35 seconds

                                                       Time (seconds)
Module                                       User      System        Wall        Calls

--------------------------------------------------------------------------------------

**************************************************************************************

Host: germain

Timers On : Wed Nov 13 13:57:29 2024
Timers Off: Wed Nov 13 13:57:29 2024

Wall Time:        0.64 seconds

                                                       Time (seconds)
Module                                       User      System        Wall        Calls

--------------------------------------------------------------------------------------

**************************************************************************************

Host: germain

Timers On : Wed Nov 13 13:57:49 2024
Timers Off: Wed Nov 13 13:57:50 2024

Wall Time:        0.42 seconds

                                                       Time (seconds)
Module                                       User      System        Wall        Calls

--------------------------------------------------------------------------------------

**************************************************************************************

Host: germain

Timers On : Wed Nov 13 13:58:31 2024
Timers Off: Wed Nov 13 14:00:24 2024

Wall Time:      112.72 seconds

                                                       Time (seconds)
Module                                       User      System        Wall        Calls
V: Grid                             :      9.100u      0.350s      0.204w      1 calls
build grid                          :      3.450u      0.117s      0.092w      1 calls
post-process grid                   :      5.650u      0.233s      0.111w      1 calls
DFH: sparsity prep                  :      3.567u      0.117s      0.069w      1 calls
Libint2ERI::Libint2ERI              :     11.633u      0.500s      0.243w    102 calls
Libint2ErfERI::Libint2ErfERI        :     12.850u      0.483s      1.584w     34 calls
JK: (A|Q)^-1                        :      7.617u      0.650s      0.170w      1 calls
JK: (A|mn)                          :      1.517u      1.450s      0.056w      1 calls
JK: (Q|mn)                          :     17.783u      0.633s      0.345w      1 calls
JK: (Q|mn) Write                    :      3.283u      0.233s      0.066w      1 calls
JK: (A|mn)^L                        :      1.683u      1.433s      0.059w      1 calls
JK: (Q|mn)^L                        :     21.483u      0.800s      0.423w      1 calls
JK: (Q|mn)^L Write                  :      3.817u      0.300s      0.077w      1 calls
JK: (Q|mn)^R                        :     15.033u     32.600s      0.905w      1 calls
JK: (Q|mn)^R Write                  :      9.483u      0.667s      0.193w      1 calls
HF: Form core H                     :      2.683u      1.267s      0.080w      1 calls
HF: Form S/X                        :      1.650u      0.050s      0.032w      1 calls
HF: Guess                           :     11.017u      1.100s      0.241w      1 calls
SAD Guess                           :     10.833u      1.100s      0.237w      1 calls
HF: Form G                          :   1026.533u     31.067s     19.880w     12 calls
UV: Form V                          :    723.567u      4.567s     13.683w     12 calls
Properties                          :    178.682p                          28886 calls
Functional                          :      3.328p                          28886 calls
V_xc                                :    263.726p                          26664 calls
JK: D                               :      0.267u      0.033s      0.006w     12 calls
JK: USO2AO                          :      0.117u      0.000s      0.002w     12 calls
JK: JK                              :    301.700u     26.350s      6.172w     12 calls
JK: (Q|mn) Read                     :     63.000u      4.767s      1.277w     24 calls
JK: J                               :     24.017u      1.083s      0.472w     24 calls
JK: J1                              :     11.150u      0.517s      0.220w     48 calls
JK: J2                              :     11.917u      0.450s      0.232w     48 calls
JK: K                               :     29.017u      0.250s      0.549w     24 calls
JK: K1                              :     20.433u      0.117s      0.389w     48 calls
JK: K2                              :      8.183u      0.100s      0.157w     48 calls
JK: (Q|mn)^L Read                   :     51.300u      3.817s      1.036w     36 calls
JK: (Q|mn)^R Read                   :     57.033u      4.217s      1.152w     36 calls
JK: wK                              :     53.350u     10.383s      1.201w     36 calls
JK: wK1                             :     43.017u     10.100s      1.007w    144 calls
JK: wK2                             :      9.483u      0.250s      0.188w     72 calls
JK: AO2USO                          :      0.000u      0.000s      0.000w     12 calls
HF: Form F                          :      0.317u      0.000s      0.006w     12 calls
HF: Form D                          :      0.233u      0.017s      0.005w     12 calls
HF: DIIS                            :     28.100u      2.583s      0.578w     11 calls
HF: Form C                          :     32.350u      1.100s      0.631w     11 calls
Grad: V T Perturb                   :      1.650u      0.033s      0.032w      1 calls
Grad: S                             :      0.850u      0.650s      0.028w      1 calls
Grad: JK                            :    109.800u     10.883s      4.100w      1 calls
JKGrad: Amn                         :     20.233u      1.133s      0.531w      1 calls
JKGrad: Awmn                        :     34.533u      0.867s      2.131w      1 calls
JKGrad: AB                          :      4.067u      0.083s      0.078w      1 calls
JKGrad: UV                          :      1.383u      0.067s      0.027w      1 calls
JKGrad: ABx                         :      0.983u      1.217s      0.052w      1 calls
JKGrad: Amnx                        :     48.350u      7.517s      1.276w      1 calls
Grad: XC                            :     63.633u      0.817s      1.212w      1 calls
V_xc gradient                       :     17.076p                           2222 calls

--------------------------------------------------------------------------------------
V: Grid                             :      9.100u      0.350s      0.204w      1 calls
| build grid                        :      3.450u      0.117s      0.092w      1 calls
| post-process grid                 :      5.650u      0.233s      0.111w      1 calls
DFH: sparsity prep                  :      3.567u      0.117s      0.069w      1 calls
| Libint2ERI::Libint2ERI            :      2.450u      0.067s      0.047w      1 calls
Libint2ERI::Libint2ERI              :      4.333u      0.200s      0.085w     34 calls
Libint2ErfERI::Libint2ErfERI        :      0.067u      0.017s      0.045w      1 calls
JK: (A|Q)^-1                        :      7.617u      0.650s      0.170w      1 calls
| Libint2ERI::Libint2ERI            :      0.000u      0.033s      0.015w     32 calls
JK: (A|mn)                          :      1.517u      1.450s      0.056w      1 calls
JK: (Q|mn)                          :     17.783u      0.633s      0.345w      1 calls
JK: (Q|mn) Write                    :      3.283u      0.233s      0.066w      1 calls
JK: (A|mn)^L                        :      1.683u      1.433s      0.059w      1 calls
JK: (Q|mn)^L                        :     21.483u      0.800s      0.423w      1 calls
JK: (Q|mn)^L Write                  :      3.817u      0.300s      0.077w      1 calls
JK: (Q|mn)^R                        :     15.033u     32.600s      0.905w      1 calls
JK: (Q|mn)^R Write                  :      9.483u      0.667s      0.193w      1 calls
HF: Form core H                     :      2.683u      1.267s      0.080w      1 calls
HF: Form S/X                        :      1.650u      0.050s      0.032w      1 calls
HF: Guess                           :     11.017u      1.100s      0.241w      1 calls
| SAD Guess                         :     10.833u      1.100s      0.237w      1 calls
HF: Form G                          :   1026.533u     31.067s     19.880w     12 calls
| UV: Form V                        :    723.567u      4.567s     13.683w     12 calls
| | Properties                      :    164.683p                          26664 calls
| | Functional                      :      3.068p                          26664 calls
| | V_xc                            :    263.726p                          26664 calls
| JK: D                             :      0.267u      0.033s      0.006w     12 calls
| JK: USO2AO                        :      0.117u      0.000s      0.002w     12 calls
| JK: JK                            :    301.700u     26.350s      6.172w     12 calls
| | JK: (Q|mn) Read                 :     63.000u      4.767s      1.277w     24 calls
| | JK: J                           :     24.017u      1.083s      0.472w     24 calls
| | | JK: J1                        :     11.150u      0.517s      0.220w     48 calls
| | | JK: J2                        :     11.917u      0.450s      0.232w     48 calls
| | JK: K                           :     29.017u      0.250s      0.549w     24 calls
| | | JK: K1                        :     20.433u      0.117s      0.389w     48 calls
| | | JK: K2                        :      8.183u      0.100s      0.157w     48 calls
| | JK: (Q|mn)^L Read               :     51.300u      3.817s      1.036w     36 calls
| | JK: (Q|mn)^R Read               :     57.033u      4.217s      1.152w     36 calls
| | JK: wK                          :     53.350u     10.383s      1.201w     36 calls
| | | JK: wK1                       :     43.017u     10.100s      1.007w    144 calls
| | | JK: wK2                       :      9.483u      0.250s      0.188w     72 calls
| JK: AO2USO                        :      0.000u      0.000s      0.000w     12 calls
HF: Form F                          :      0.317u      0.000s      0.006w     12 calls
HF: Form D                          :      0.233u      0.017s      0.005w     12 calls
HF: DIIS                            :     28.100u      2.583s      0.578w     11 calls
HF: Form C                          :     32.350u      1.100s      0.631w     11 calls
Grad: V T Perturb                   :      1.650u      0.033s      0.032w      1 calls
Grad: S                             :      0.850u      0.650s      0.028w      1 calls
Grad: JK                            :    109.800u     10.883s      4.100w      1 calls
| JKGrad: Amn                       :     20.233u      1.133s      0.531w      1 calls
| | Libint2ERI::Libint2ERI          :      2.317u      0.083s      0.045w      1 calls
| JKGrad: Awmn                      :     34.533u      0.867s      2.131w      1 calls
| | Libint2ErfERI::Libint2ErfERI    :     10.333u      0.367s      1.490w     32 calls
| JKGrad: AB                        :      4.067u      0.083s      0.078w      1 calls
| | Libint2ERI::Libint2ERI          :      0.283u      0.000s      0.005w     32 calls
| JKGrad: UV                        :      1.383u      0.067s      0.027w      1 calls
| JKGrad: ABx                       :      0.983u      1.217s      0.052w      1 calls
| | Libint2ERI::Libint2ERI          :      0.017u      0.000s      0.000w      1 calls
| JKGrad: Amnx                      :     48.350u      7.517s      1.276w      1 calls
| | Libint2ERI::Libint2ERI          :      2.233u      0.117s      0.046w      1 calls
| | Libint2ErfERI::Libint2ErfERI    :      2.450u      0.100s      0.049w      1 calls
Grad: XC                            :     63.633u      0.817s      1.212w      1 calls
| Properties                        :     13.999p                           2222 calls
| Functional                        :      0.260p                           2222 calls
| V_xc gradient                     :     17.076p                           2222 calls

**************************************************************************************

Host: germain

Timers On : Wed Nov 13 14:01:39 2024
Timers Off: Wed Nov 13 14:02:25 2024

Wall Time:       46.04 seconds

                                                       Time (seconds)
Module                                       User      System        Wall        Calls

--------------------------------------------------------------------------------------

**************************************************************************************

Host: germain

Timers On : Wed Nov 13 14:05:28 2024
Timers Off: Wed Nov 13 14:05:29 2024

Wall Time:        0.46 seconds

                                                       Time (seconds)
Module                                       User      System        Wall        Calls

--------------------------------------------------------------------------------------

**************************************************************************************

Host: germain

Timers On : Wed Nov 13 14:06:01 2024
Timers Off: Wed Nov 13 14:06:35 2024

Wall Time:       34.15 seconds

                                                       Time (seconds)
Module                                       User      System        Wall        Calls
V: Grid                             :      9.117u      0.350s      0.241w      1 calls
build grid                          :      4.550u      0.133s      0.131w      1 calls
post-process grid                   :      4.567u      0.217s      0.109w      1 calls
DFH: sparsity prep                  :      3.783u      0.200s      0.080w      1 calls
Libint2ERI::Libint2ERI              :     12.383u      0.700s      0.264w    102 calls
Libint2ErfERI::Libint2ErfERI        :     11.983u      0.400s      1.542w     34 calls
JK: (A|Q)^-1                        :      6.283u      0.433s      0.139w      1 calls
JK: (A|mn)                          :      1.533u      1.567s      0.058w      1 calls
JK: (Q|mn)                          :     16.467u      0.483s      0.318w      1 calls
JK: (Q|mn) Write                    :      2.650u      0.167s      0.053w      1 calls
JK: (A|mn)^L                        :      1.300u      1.717s      0.057w      1 calls
JK: (Q|mn)^L                        :     16.550u      0.450s      0.319w      1 calls
JK: (Q|mn)^L Write                  :      6.100u      0.433s      0.123w      1 calls
JK: (Q|mn)^R                        :     21.617u     23.617s      0.848w      1 calls
JK: (Q|mn)^R Write                  :      7.350u      0.550s      0.149w      1 calls
HF: Form core H                     :      2.017u      0.217s      0.042w      1 calls
HF: Form S/X                        :      1.483u      0.033s      0.029w      1 calls
HF: Guess                           :      8.750u      1.100s      0.189w      1 calls
SAD Guess                           :      8.600u      1.100s      0.186w      1 calls
HF: Form G                          :   1094.467u     23.267s     21.063w     12 calls
UV: Form V                          :    752.167u      3.667s     14.231w     12 calls
Properties                          :    161.737p                          28886 calls
Functional                          :      3.073p                          28886 calls
V_xc                                :    295.340p                          26664 calls
JK: D                               :      0.267u      0.000s      0.005w     12 calls
JK: USO2AO                          :      0.100u      0.017s      0.002w     12 calls
JK: JK                              :    340.767u     19.533s      6.800w     12 calls
JK: (Q|mn) Read                     :     63.900u      5.067s      1.298w     24 calls
JK: J                               :     23.567u      0.967s      0.462w     24 calls
JK: J1                              :     10.667u      0.500s      0.211w     48 calls
JK: J2                              :     11.883u      0.400s      0.233w     48 calls
JK: K                               :     30.950u      0.183s      0.587w     24 calls
JK: K1                              :     22.667u      0.133s      0.433w     48 calls
JK: K2                              :      7.933u      0.050s      0.150w     48 calls
JK: (Q|mn)^L Read                   :     75.250u      5.383s      1.520w     36 calls
JK: (Q|mn)^R Read                   :     57.617u      4.217s      1.167w     36 calls
JK: wK                              :     60.567u      1.600s      1.181w     36 calls
JK: wK1                             :     49.500u      1.333s      0.969w    144 calls
JK: wK2                             :     10.333u      0.250s      0.206w     72 calls
JK: AO2USO                          :      0.017u      0.000s      0.000w     12 calls
HF: Form F                          :      0.283u      0.017s      0.007w     12 calls
HF: Form D                          :      0.183u      0.017s      0.004w     12 calls
HF: DIIS                            :     30.367u      1.983s      0.615w     11 calls
HF: Form C                          :     36.533u      0.883s      0.705w     11 calls
Grad: V T Perturb                   :      2.950u      0.317s      0.066w      1 calls
Grad: S                             :      1.083u      0.017s      0.021w      1 calls
Grad: JK                            :    128.283u      4.300s      4.541w      1 calls
JKGrad: Amn                         :     22.483u      1.467s      0.560w      1 calls
JKGrad: Awmn                        :     39.467u      0.917s      2.276w      1 calls
JKGrad: AB                          :      7.600u      0.333s      0.155w      1 calls
JKGrad: UV                          :      1.683u      0.067s      0.033w      1 calls
JKGrad: ABx                         :      0.667u      0.017s      0.013w      1 calls
JKGrad: Amnx                        :     56.183u      1.500s      1.501w      1 calls
Grad: XC                            :     52.300u      0.467s      0.990w      1 calls
V_xc gradient                       :     14.573p                           2222 calls

--------------------------------------------------------------------------------------
V: Grid                             :      9.117u      0.350s      0.241w      1 calls
| build grid                        :      4.550u      0.133s      0.131w      1 calls
| post-process grid                 :      4.567u      0.217s      0.109w      1 calls
DFH: sparsity prep                  :      3.783u      0.200s      0.080w      1 calls
| Libint2ERI::Libint2ERI            :      2.500u      0.150s      0.055w      1 calls
Libint2ERI::Libint2ERI              :      4.767u      0.283s      0.096w     34 calls
Libint2ErfERI::Libint2ErfERI        :      0.083u      0.000s      0.053w      1 calls
JK: (A|Q)^-1                        :      6.283u      0.433s      0.139w      1 calls
| Libint2ERI::Libint2ERI            :      0.000u      0.050s      0.013w     32 calls
JK: (A|mn)                          :      1.533u      1.567s      0.058w      1 calls
JK: (Q|mn)                          :     16.467u      0.483s      0.318w      1 calls
JK: (Q|mn) Write                    :      2.650u      0.167s      0.053w      1 calls
JK: (A|mn)^L                        :      1.300u      1.717s      0.057w      1 calls
JK: (Q|mn)^L                        :     16.550u      0.450s      0.319w      1 calls
JK: (Q|mn)^L Write                  :      6.100u      0.433s      0.123w      1 calls
JK: (Q|mn)^R                        :     21.617u     23.617s      0.848w      1 calls
JK: (Q|mn)^R Write                  :      7.350u      0.550s      0.149w      1 calls
HF: Form core H                     :      2.017u      0.217s      0.042w      1 calls
HF: Form S/X                        :      1.483u      0.033s      0.029w      1 calls
HF: Guess                           :      8.750u      1.100s      0.189w      1 calls
| SAD Guess                         :      8.600u      1.100s      0.186w      1 calls
HF: Form G                          :   1094.467u     23.267s     21.063w     12 calls
| UV: Form V                        :    752.167u      3.667s     14.231w     12 calls
| | Properties                      :    149.773p                          26664 calls
| | Functional                      :      2.842p                          26664 calls
| | V_xc                            :    295.340p                          26664 calls
| JK: D                             :      0.267u      0.000s      0.005w     12 calls
| JK: USO2AO                        :      0.100u      0.017s      0.002w     12 calls
| JK: JK                            :    340.767u     19.533s      6.800w     12 calls
| | JK: (Q|mn) Read                 :     63.900u      5.067s      1.298w     24 calls
| | JK: J                           :     23.567u      0.967s      0.462w     24 calls
| | | JK: J1                        :     10.667u      0.500s      0.211w     48 calls
| | | JK: J2                        :     11.883u      0.400s      0.233w     48 calls
| | JK: K                           :     30.950u      0.183s      0.587w     24 calls
| | | JK: K1                        :     22.667u      0.133s      0.433w     48 calls
| | | JK: K2                        :      7.933u      0.050s      0.150w     48 calls
| | JK: (Q|mn)^L Read               :     75.250u      5.383s      1.520w     36 calls
| | JK: (Q|mn)^R Read               :     57.617u      4.217s      1.167w     36 calls
| | JK: wK                          :     60.567u      1.600s      1.181w     36 calls
| | | JK: wK1                       :     49.500u      1.333s      0.969w    144 calls
| | | JK: wK2                       :     10.333u      0.250s      0.206w     72 calls
| JK: AO2USO                        :      0.017u      0.000s      0.000w     12 calls
HF: Form F                          :      0.283u      0.017s      0.007w     12 calls
HF: Form D                          :      0.183u      0.017s      0.004w     12 calls
HF: DIIS                            :     30.367u      1.983s      0.615w     11 calls
HF: Form C                          :     36.533u      0.883s      0.705w     11 calls
Grad: V T Perturb                   :      2.950u      0.317s      0.066w      1 calls
Grad: S                             :      1.083u      0.017s      0.021w      1 calls
Grad: JK                            :    128.283u      4.300s      4.541w      1 calls
| JKGrad: Amn                       :     22.483u      1.467s      0.560w      1 calls
| | Libint2ERI::Libint2ERI          :      2.283u      0.117s      0.045w      1 calls
| JKGrad: Awmn                      :     39.467u      0.917s      2.276w      1 calls
| | Libint2ErfERI::Libint2ErfERI    :      9.150u      0.300s      1.435w     32 calls
| JKGrad: AB                        :      7.600u      0.333s      0.155w      1 calls
| | Libint2ERI::Libint2ERI          :      0.383u      0.033s      0.008w     32 calls
| JKGrad: UV                        :      1.683u      0.067s      0.033w      1 calls
| JKGrad: ABx                       :      0.667u      0.017s      0.013w      1 calls
| | Libint2ERI::Libint2ERI          :      0.017u      0.000s      0.000w      1 calls
| JKGrad: Amnx                      :     56.183u      1.500s      1.501w      1 calls
| | Libint2ERI::Libint2ERI          :      2.433u      0.067s      0.047w      1 calls
| | Libint2ErfERI::Libint2ErfERI    :      2.750u      0.100s      0.054w      1 calls
Grad: XC                            :     52.300u      0.467s      0.990w      1 calls
| Properties                        :     11.964p                           2222 calls
| Functional                        :      0.231p                           2222 calls
| V_xc gradient                     :     14.573p                           2222 calls

**************************************************************************************

Host: germain

Timers On : Wed Nov 13 14:07:17 2024
Timers Off: Wed Nov 13 14:12:05 2024

Wall Time:      288.48 seconds

                                                       Time (seconds)
Module                                       User      System        Wall        Calls
V: Grid                             :     24.700u      0.983s      0.489w      3 calls
build grid                          :      8.800u      0.300s      0.177w      3 calls
post-process grid                   :     15.850u      0.683s      0.311w      3 calls
DFH: sparsity prep                  :     10.783u      0.450s      0.222w      3 calls
Libint2ERI::Libint2ERI              :     36.117u      1.717s      0.766w    306 calls
Libint2ErfERI::Libint2ErfERI        :     39.067u      1.333s      4.763w    102 calls
JK: (A|Q)^-1                        :     19.767u      1.883s      0.609w      3 calls
JK: (A|mn)                          :      4.267u      4.000s      0.156w      3 calls
JK: (Q|mn)                          :     49.767u      1.467s      0.963w      3 calls
JK: (Q|mn) Write                    :     15.850u      0.950s      0.321w      3 calls
JK: (A|mn)^L                        :      4.567u      3.500s      0.151w      3 calls
JK: (Q|mn)^L                        :     48.417u      2.133s      0.948w      3 calls
JK: (Q|mn)^L Write                  :     17.883u      1.250s      0.359w      3 calls
JK: (Q|mn)^R                        :     51.883u     74.167s      2.369w      3 calls
JK: (Q|mn)^R Write                  :     24.533u      1.967s      0.498w      3 calls
HF: Form core H                     :      6.500u      0.233s      0.127w      3 calls
HF: Form S/X                        :      4.700u      0.100s      0.091w      3 calls
HF: Guess                           :     28.217u      3.050s      0.612w      3 calls
SAD Guess                           :     27.767u      3.017s      0.604w      3 calls
HF: Form G                          :   3321.617u     70.633s     63.877w     36 calls
UV: Form V                          :   2274.617u      7.850s     42.953w     36 calls
Properties                          :    509.367p                          86918 calls
Functional                          :      9.660p                          86918 calls
V_xc                                :    872.266p                          80232 calls
JK: D                               :      0.817u      0.100s      0.016w     36 calls
JK: USO2AO                          :      0.267u      0.033s      0.005w     36 calls
JK: JK                              :   1039.967u     62.383s     20.782w     36 calls
JK: (Q|mn) Read                     :    229.383u     16.917s      4.644w     72 calls
JK: J                               :     77.500u      3.067s      1.522w     72 calls
JK: J1                              :     36.750u      1.167s      0.718w    144 calls
JK: J2                              :     37.700u      1.550s      0.743w    144 calls
JK: K                               :     97.017u      1.517s      1.864w     72 calls
JK: K1                              :     68.633u      0.967s      1.326w    144 calls
JK: K2                              :     26.950u      0.467s      0.527w    144 calls
JK: (Q|mn)^L Read                   :    205.700u     14.933s      4.158w    108 calls
JK: (Q|mn)^R Read                   :    186.683u     14.417s      3.787w    108 calls
JK: wK                              :    164.467u      5.800s      3.215w    108 calls
JK: wK1                             :    134.933u      5.167s      2.669w    432 calls
JK: wK2                             :     26.883u      0.433s      0.531w    216 calls
JK: AO2USO                          :      0.000u      0.000s      0.000w     36 calls
HF: Form F                          :      2.783u      0.067s      0.056w     36 calls
HF: Form D                          :      0.617u      0.017s      0.013w     36 calls
HF: DIIS                            :     74.267u      4.817s      1.487w     33 calls
HF: Form C                          :    105.817u      3.250s      2.055w     33 calls
Grad: V T Perturb                   :      7.650u      0.167s      0.149w      3 calls
Grad: S                             :      2.917u      0.150s      0.058w      3 calls
Grad: JK                            :    372.083u     42.517s     13.241w      3 calls
JKGrad: Amn                         :     66.600u      3.733s      1.573w      3 calls
JKGrad: Awmn                        :    122.250u      2.617s      6.778w      3 calls
JKGrad: AB                          :     18.167u      0.750s      0.358w      3 calls
JKGrad: UV                          :      5.167u      0.400s      0.106w      3 calls
JKGrad: ABx                         :      2.783u      0.083s      0.060w      3 calls
JKGrad: Amnx                        :    156.600u     34.883s      4.355w      3 calls
Grad: XC                            :    173.117u      2.567s      3.362w      3 calls
V_xc gradient                       :     47.494p                           6686 calls

--------------------------------------------------------------------------------------
V: Grid                             :     24.700u      0.983s      0.489w      3 calls
| build grid                        :      8.800u      0.300s      0.177w      3 calls
| post-process grid                 :     15.850u      0.683s      0.311w      3 calls
DFH: sparsity prep                  :     10.783u      0.450s      0.222w      3 calls
| Libint2ERI::Libint2ERI            :      7.067u      0.333s      0.148w      3 calls
Libint2ERI::Libint2ERI              :     13.550u      0.567s      0.272w    102 calls
Libint2ErfERI::Libint2ErfERI        :      0.383u      0.017s      0.141w      3 calls
JK: (A|Q)^-1                        :     19.767u      1.883s      0.609w      3 calls
| Libint2ERI::Libint2ERI            :      0.017u      0.083s      0.034w     96 calls
JK: (A|mn)                          :      4.267u      4.000s      0.156w      3 calls
JK: (Q|mn)                          :     49.767u      1.467s      0.963w      3 calls
JK: (Q|mn) Write                    :     15.850u      0.950s      0.321w      3 calls
JK: (A|mn)^L                        :      4.567u      3.500s      0.151w      3 calls
JK: (Q|mn)^L                        :     48.417u      2.133s      0.948w      3 calls
JK: (Q|mn)^L Write                  :     17.883u      1.250s      0.359w      3 calls
JK: (Q|mn)^R                        :     51.883u     74.167s      2.369w      3 calls
JK: (Q|mn)^R Write                  :     24.533u      1.967s      0.498w      3 calls
HF: Form core H                     :      6.500u      0.233s      0.127w      3 calls
HF: Form S/X                        :      4.700u      0.100s      0.091w      3 calls
HF: Guess                           :     28.217u      3.050s      0.612w      3 calls
| SAD Guess                         :     27.767u      3.017s      0.604w      3 calls
HF: Form G                          :   3321.617u     70.633s     63.877w     36 calls
| UV: Form V                        :   2274.617u      7.850s     42.953w     36 calls
| | Properties                      :    469.935p                          80232 calls
| | Functional                      :      8.868p                          80232 calls
| | V_xc                            :    872.266p                          80232 calls
| JK: D                             :      0.817u      0.100s      0.016w     36 calls
| JK: USO2AO                        :      0.267u      0.033s      0.005w     36 calls
| JK: JK                            :   1039.967u     62.383s     20.782w     36 calls
| | JK: (Q|mn) Read                 :    229.383u     16.917s      4.644w     72 calls
| | JK: J                           :     77.500u      3.067s      1.522w     72 calls
| | | JK: J1                        :     36.750u      1.167s      0.718w    144 calls
| | | JK: J2                        :     37.700u      1.550s      0.743w    144 calls
| | JK: K                           :     97.017u      1.517s      1.864w     72 calls
| | | JK: K1                        :     68.633u      0.967s      1.326w    144 calls
| | | JK: K2                        :     26.950u      0.467s      0.527w    144 calls
| | JK: (Q|mn)^L Read               :    205.700u     14.933s      4.158w    108 calls
| | JK: (Q|mn)^R Read               :    186.683u     14.417s      3.787w    108 calls
| | JK: wK                          :    164.467u      5.800s      3.215w    108 calls
| | | JK: wK1                       :    134.933u      5.167s      2.669w    432 calls
| | | JK: wK2                       :     26.883u      0.433s      0.531w    216 calls
| JK: AO2USO                        :      0.000u      0.000s      0.000w     36 calls
HF: Form F                          :      2.783u      0.067s      0.056w     36 calls
HF: Form D                          :      0.617u      0.017s      0.013w     36 calls
HF: DIIS                            :     74.267u      4.817s      1.487w     33 calls
HF: Form C                          :    105.817u      3.250s      2.055w     33 calls
Grad: V T Perturb                   :      7.650u      0.167s      0.149w      3 calls
Grad: S                             :      2.917u      0.150s      0.058w      3 calls
Grad: JK                            :    372.083u     42.517s     13.241w      3 calls
| JKGrad: Amn                       :     66.600u      3.733s      1.573w      3 calls
| | Libint2ERI::Libint2ERI          :      7.583u      0.367s      0.150w      3 calls
| JKGrad: Awmn                      :    122.250u      2.617s      6.778w      3 calls
| | Libint2ErfERI::Libint2ErfERI    :     31.017u      0.933s      4.471w     96 calls
| JKGrad: AB                        :     18.167u      0.750s      0.358w      3 calls
| | Libint2ERI::Libint2ERI          :      0.683u      0.050s      0.013w     96 calls
| JKGrad: UV                        :      5.167u      0.400s      0.106w      3 calls
| JKGrad: ABx                       :      2.783u      0.083s      0.060w      3 calls
| | Libint2ERI::Libint2ERI          :      0.067u      0.000s      0.001w      3 calls
| JKGrad: Amnx                      :    156.600u     34.883s      4.355w      3 calls
| | Libint2ERI::Libint2ERI          :      7.150u      0.317s      0.147w      3 calls
| | Libint2ErfERI::Libint2ErfERI    :      7.667u      0.383s      0.152w      3 calls
Grad: XC                            :    173.117u      2.567s      3.362w      3 calls
| Properties                        :     39.433p                           6686 calls
| Functional                        :      0.793p                           6686 calls
| V_xc gradient                     :     47.494p                           6686 calls

**************************************************************************************

Host: germain

Timers On : Wed Nov 13 20:35:37 2024
Timers Off: Wed Nov 13 20:35:37 2024

Wall Time:        0.43 seconds

                                                       Time (seconds)
Module                                       User      System        Wall        Calls

--------------------------------------------------------------------------------------

**************************************************************************************

Host: germain

Timers On : Wed Nov 13 20:36:26 2024
Timers Off: Wed Nov 13 20:36:26 2024

Wall Time:        0.40 seconds

                                                       Time (seconds)
Module                                       User      System        Wall        Calls

--------------------------------------------------------------------------------------

**************************************************************************************

Host: germain

Timers On : Wed Nov 13 20:37:34 2024
Timers Off: Wed Nov 13 20:44:06 2024

Wall Time:      391.99 seconds

                                                       Time (seconds)
Module                                       User      System        Wall        Calls
V: Grid                             :     82.733u      2.983s      1.752w     10 calls
build grid                          :     32.283u      0.983s      0.665w     10 calls
post-process grid                   :     50.367u      2.000s      1.086w     10 calls
DFH: sparsity prep                  :     48.450u      2.117s      0.989w     10 calls
Libint2ERI::Libint2ERI              :    137.567u      6.033s      3.421w    954 calls
Libint2ErfERI::Libint2ErfERI        :    149.533u      5.317s     22.457w    340 calls
JK: (A|Q)^-1                        :     96.200u      8.817s      3.369w      8 calls
JK: (A|mn)                          :     24.800u      8.917s      0.663w     10 calls
JK: (Q|mn)                          :    205.150u      6.817s      4.022w     10 calls
JK: (Q|mn) Write                    :     51.167u      4.117s      1.253w     10 calls
JK: (A|mn)^L                        :     21.850u      9.717s      0.605w     10 calls
JK: (Q|mn)^L                        :    222.783u      7.500s      4.374w     10 calls
JK: (Q|mn)^L Write                  :     56.483u      4.233s      1.178w     10 calls
JK: (Q|mn)^R                        :    227.083u    264.367s      9.309w     10 calls
JK: (Q|mn)^R Write                  :     81.867u      8.133s      2.695w     10 calls
HF: Form core H                     :     41.833u      1.550s      0.836w     10 calls
HF: Form S/X                        :     28.467u      0.983s      0.585w     10 calls
HF: Guess                           :    110.283u      6.800s      2.352w     10 calls
SAD Guess                           :    109.183u      6.667s      2.328w     10 calls
HF: Form G                          :  13133.050u    253.467s    257.787w    133 calls
UV: Form V                          :   8860.850u     21.750s    167.972w    133 calls
Properties                          :   2436.120p                         316212 calls
Functional                          :     40.725p                         316212 calls
V_xc                                :   2995.571p                         294153 calls
JK: D                               :      3.433u      0.267s      0.073w    133 calls
JK: USO2AO                          :      0.800u      0.033s      0.014w    133 calls
JK: JK                              :   4246.217u    230.233s     89.282w    133 calls
JK: (Q|mn) Read                     :    885.800u     67.900s     18.605w    214 calls
JK: J                               :    206.550u      8.917s      6.674w    214 calls
JK: J1                              :     96.717u      4.117s      3.058w    428 calls
JK: J2                              :    100.583u      4.117s      3.372w    428 calls
JK: K                               :    528.767u     14.917s     10.689w    214 calls
JK: K1                              :    352.050u     12.183s      7.243w    428 calls
JK: K2                              :    173.417u      2.617s      3.422w    428 calls
JK: (Q|mn)^L Read                   :    750.767u     56.400s     15.313w    348 calls
JK: (Q|mn)^R Read                   :    623.900u     48.017s     13.414w    348 calls
JK: wK                              :    906.450u     13.700s     17.689w    348 calls
JK: wK1                             :    710.617u     10.383s     13.959w   1392 calls
JK: wK2                             :    187.400u      3.150s      3.683w    696 calls
DFH: compute_JK()                   :     23.550u      0.333s      0.452w     26 calls
DFH: Grabbing AOs                   :      0.017u      0.000s      0.000w     26 calls
DFH: compute_J                      :      3.417u      0.067s      0.067w     26 calls
DFH: compute_K                      :     16.417u      0.200s      0.314w     26 calls
DFH: compute_wK()                   :     37.300u      0.667s      0.715w     26 calls
JK: AO2USO                          :      0.017u      0.000s      0.000w    133 calls
HF: Form F                          :      3.883u      0.133s      0.083w    133 calls
HF: Form D                          :      2.633u      0.167s      0.054w    133 calls
HF: DIIS                            :    354.717u     21.800s      7.157w    123 calls
HF: Form C                          :    438.333u     13.700s      8.583w    123 calls
Grad: V T Perturb                   :     57.867u      2.300s      1.158w     10 calls
Grad: S                             :     10.167u      0.300s      0.199w     10 calls
Grad: JK                            :   1358.283u     36.100s     50.453w     10 calls
JKGrad: Amn                         :    233.050u     11.683s      5.941w     10 calls
JKGrad: Awmn                        :    424.633u      8.867s     28.806w     10 calls
JKGrad: AB                          :     59.283u      1.983s      1.160w     10 calls
JKGrad: UV                          :     18.350u      0.950s      0.364w     10 calls
JKGrad: ABx                         :      6.583u      1.317s      0.150w     10 calls
JKGrad: Amnx                        :    613.467u     11.133s     13.973w     10 calls
Grad: XC                            :    749.217u      4.600s     14.318w     10 calls
V_xc gradient                       :    222.320p                          22059 calls
DFH: initialize()                   :     48.067u      3.250s      1.058w      2 calls
DFH: AO Construction                :      2.933u      0.100s      0.070w      4 calls
DFH: AO-Met. Contraction            :      3.733u      0.050s      0.073w      8 calls
DFH: wAO Construction               :      9.267u      0.117s      0.177w      4 calls
DFH: wAO Copy                       :      2.133u      0.067s      0.042w      4 calls

--------------------------------------------------------------------------------------
V: Grid                             :     82.733u      2.983s      1.752w     10 calls
| build grid                        :     32.283u      0.983s      0.665w     10 calls
| post-process grid                 :     50.367u      2.000s      1.086w     10 calls
DFH: sparsity prep                  :     48.450u      2.117s      0.989w     10 calls
| Libint2ERI::Libint2ERI            :     32.033u      1.350s      0.659w     10 calls
Libint2ERI::Libint2ERI              :     28.683u      1.250s      1.172w    272 calls
Libint2ErfERI::Libint2ErfERI        :      3.417u      0.100s      0.579w      8 calls
JK: (A|Q)^-1                        :     96.200u      8.817s      3.369w      8 calls
| Libint2ERI::Libint2ERI            :      0.067u      0.167s      0.071w    256 calls
JK: (A|mn)                          :     24.800u      8.917s      0.663w     10 calls
JK: (Q|mn)                          :    205.150u      6.817s      4.022w     10 calls
JK: (Q|mn) Write                    :     51.167u      4.117s      1.253w     10 calls
JK: (A|mn)^L                        :     21.850u      9.717s      0.605w     10 calls
JK: (Q|mn)^L                        :    222.783u      7.500s      4.374w     10 calls
JK: (Q|mn)^L Write                  :     56.483u      4.233s      1.178w     10 calls
JK: (Q|mn)^R                        :    227.083u    264.367s      9.309w     10 calls
JK: (Q|mn)^R Write                  :     81.867u      8.133s      2.695w     10 calls
HF: Form core H                     :     41.833u      1.550s      0.836w     10 calls
HF: Form S/X                        :     28.467u      0.983s      0.585w     10 calls
HF: Guess                           :    110.283u      6.800s      2.352w     10 calls
| SAD Guess                         :    109.183u      6.667s      2.328w     10 calls
HF: Form G                          :  13133.050u    253.467s    257.787w    133 calls
| UV: Form V                        :   8860.850u     21.750s    167.972w    133 calls
| | Properties                      :   2249.913p                         294153 calls
| | Functional                      :     37.598p                         294153 calls
| | V_xc                            :   2995.571p                         294153 calls
| JK: D                             :      3.433u      0.267s      0.073w    133 calls
| JK: USO2AO                        :      0.800u      0.033s      0.014w    133 calls
| JK: JK                            :   4246.217u    230.233s     89.282w    133 calls
| | JK: (Q|mn) Read                 :    885.800u     67.900s     18.605w    214 calls
| | JK: J                           :    206.550u      8.917s      6.674w    214 calls
| | | JK: J1                        :     96.717u      4.117s      3.058w    428 calls
| | | JK: J2                        :    100.583u      4.117s      3.372w    428 calls
| | JK: K                           :    528.767u     14.917s     10.689w    214 calls
| | | JK: K1                        :    352.050u     12.183s      7.243w    428 calls
| | | JK: K2                        :    173.417u      2.617s      3.422w    428 calls
| | JK: (Q|mn)^L Read               :    750.767u     56.400s     15.313w    348 calls
| | JK: (Q|mn)^R Read               :    623.900u     48.017s     13.414w    348 calls
| | JK: wK                          :    906.450u     13.700s     17.689w    348 calls
| | | JK: wK1                       :    710.617u     10.383s     13.959w   1392 calls
| | | JK: wK2                       :    187.400u      3.150s      3.683w    696 calls
| | DFH: compute_JK()               :     23.550u      0.333s      0.452w     26 calls
| | | DFH: Grabbing AOs             :      0.017u      0.000s      0.000w     26 calls
| | | DFH: compute_J                :      3.417u      0.067s      0.067w     26 calls
| | | DFH: compute_K                :     16.417u      0.200s      0.314w     26 calls
| | DFH: compute_wK()               :     37.300u      0.667s      0.715w     26 calls
| JK: AO2USO                        :      0.017u      0.000s      0.000w    133 calls
HF: Form F                          :      3.883u      0.133s      0.083w    133 calls
HF: Form D                          :      2.633u      0.167s      0.054w    133 calls
HF: DIIS                            :    354.717u     21.800s      7.157w    123 calls
HF: Form C                          :    438.333u     13.700s      8.583w    123 calls
Grad: V T Perturb                   :     57.867u      2.300s      1.158w     10 calls
Grad: S                             :     10.167u      0.300s      0.199w     10 calls
Grad: JK                            :   1358.283u     36.100s     50.453w     10 calls
| JKGrad: Amn                       :    233.050u     11.683s      5.941w     10 calls
| | Libint2ERI::Libint2ERI          :     35.183u      1.517s      0.694w     10 calls
| JKGrad: Awmn                      :    424.633u      8.867s     28.806w     10 calls
| | Libint2ErfERI::Libint2ErfERI    :    109.517u      3.533s     21.103w    320 calls
| JKGrad: AB                        :     59.283u      1.983s      1.160w     10 calls
| | Libint2ERI::Libint2ERI          :      2.883u      0.233s      0.059w    320 calls
| JKGrad: UV                        :     18.350u      0.950s      0.364w     10 calls
| JKGrad: ABx                       :      6.583u      1.317s      0.150w     10 calls
| | Libint2ERI::Libint2ERI          :      0.133u      0.000s      0.002w     10 calls
| JKGrad: Amnx                      :    613.467u     11.133s     13.973w     10 calls
| | Libint2ERI::Libint2ERI          :     33.633u      1.350s      0.663w     10 calls
| | Libint2ErfERI::Libint2ErfERI    :     33.367u      1.567s      0.712w     10 calls
Grad: XC                            :    749.217u      4.600s     14.318w     10 calls
| Properties                        :    186.207p                          22059 calls
| Functional                        :      3.127p                          22059 calls
| V_xc gradient                     :    222.320p                          22059 calls
DFH: initialize()                   :     48.067u      3.250s      1.058w      2 calls
| Libint2ERI::Libint2ERI            :      4.950u      0.167s      0.100w     66 calls
| Libint2ErfERI::Libint2ErfERI      :      3.233u      0.117s      0.063w      2 calls
| DFH: AO Construction              :      2.933u      0.100s      0.070w      4 calls
| DFH: AO-Met. Contraction          :      3.733u      0.050s      0.073w      8 calls
| DFH: wAO Construction             :      9.267u      0.117s      0.177w      4 calls
| DFH: wAO Copy                     :      2.133u      0.067s      0.042w      4 calls

**************************************************************************************

Host: germain

Timers On : Wed Nov 13 20:49:52 2024
Timers Off: Wed Nov 13 20:49:52 2024

Wall Time:        0.42 seconds

                                                       Time (seconds)
Module                                       User      System        Wall        Calls

--------------------------------------------------------------------------------------

**************************************************************************************

Host: germain

Timers On : Wed Nov 13 20:51:52 2024
Timers Off: Wed Nov 13 20:58:22 2024

Wall Time:      390.03 seconds

                                                       Time (seconds)
Module                                       User      System        Wall        Calls
V: Grid                             :     81.850u      3.000s      1.779w     10 calls
build grid                          :     31.967u      1.167s      0.672w     10 calls
post-process grid                   :     49.700u      1.833s      1.104w     10 calls
DFH: sparsity prep                  :     49.167u      2.267s      1.028w     10 calls
Libint2ERI::Libint2ERI              :    139.850u      6.100s      3.519w    954 calls
Libint2ErfERI::Libint2ErfERI        :    146.867u      4.933s     22.622w    340 calls
JK: (A|Q)^-1                        :     95.800u      8.800s      3.189w      8 calls
JK: (A|mn)                          :     20.533u     10.867s      0.598w     10 calls
JK: (Q|mn)                          :    209.383u      6.550s      4.071w     10 calls
JK: (Q|mn) Write                    :     44.783u      3.483s      0.915w     10 calls
JK: (A|mn)^L                        :     20.983u     11.583s      0.638w     10 calls
JK: (Q|mn)^L                        :    218.383u      6.817s      4.254w     10 calls
JK: (Q|mn)^L Write                  :     44.300u      3.267s      0.904w     10 calls
JK: (Q|mn)^R                        :    149.900u    277.767s      8.115w     10 calls
JK: (Q|mn)^R Write                  :     78.717u      7.183s      2.302w     10 calls
HF: Form core H                     :     54.417u      1.933s      2.496w     10 calls
HF: Form S/X                        :     23.483u      0.950s      0.493w     10 calls
HF: Guess                           :     96.067u      7.000s      2.091w     10 calls
SAD Guess                           :     94.700u      6.917s      2.064w     10 calls
HF: Form G                          :  13086.800u    255.917s    257.981w    133 calls
UV: Form V                          :   8917.883u     24.017s    169.268w    133 calls
Properties                          :   2434.900p                         316756 calls
Functional                          :     40.232p                         316756 calls
V_xc                                :   3029.475p                         294657 calls
JK: D                               :      3.017u      0.100s      0.064w    133 calls
JK: USO2AO                          :      1.083u      0.017s      0.019w    133 calls
JK: JK                              :   4139.317u    230.300s     88.106w    133 calls
JK: (Q|mn) Read                     :    819.233u     62.200s     16.898w    214 calls
JK: J                               :    234.250u      9.483s      6.834w    214 calls
JK: J1                              :    109.250u      4.150s      3.075w    428 calls
JK: J2                              :    114.467u      4.683s      3.501w    428 calls
JK: K                               :    524.767u      6.717s     10.370w    214 calls
JK: K1                              :    350.300u      4.217s      6.993w    428 calls
JK: K2                              :    171.350u      2.367s      3.352w    428 calls
JK: (Q|mn)^L Read                   :    609.783u     46.967s     13.013w    348 calls
JK: (Q|mn)^R Read                   :    602.750u     47.333s     13.011w    348 calls
JK: wK                              :    904.617u     32.567s     18.055w    348 calls
JK: wK1                             :    705.050u     27.017s     14.200w   1392 calls
JK: wK2                             :    190.750u      5.167s      3.807w    696 calls
DFH: compute_JK()                   :     22.250u      0.450s      0.430w     26 calls
DFH: Grabbing AOs                   :      0.000u      0.000s      0.000w     26 calls
DFH: compute_J                      :      3.900u      0.267s      0.078w     26 calls
DFH: compute_K                      :     14.367u      0.017s      0.273w     26 calls
DFH: compute_wK()                   :     40.017u      1.283s      0.782w     26 calls
JK: AO2USO                          :      0.000u      0.000s      0.000w    133 calls
HF: Form F                          :      3.117u      0.133s      0.066w    133 calls
HF: Form D                          :      3.167u      0.083s      0.069w    133 calls
HF: DIIS                            :    359.350u     20.800s      7.236w    123 calls
HF: Form C                          :    469.967u     14.683s      9.256w    123 calls
Grad: V T Perturb                   :     59.217u      2.000s      1.173w     10 calls
Grad: S                             :     12.250u      0.583s      0.246w     10 calls
Grad: JK                            :   1158.033u     34.300s     46.866w     10 calls
JKGrad: Amn                         :    228.083u     11.350s      5.734w     10 calls
JKGrad: Awmn                        :    357.050u      8.567s     27.486w     10 calls
JKGrad: AB                          :     59.883u      2.033s      1.165w     10 calls
JKGrad: UV                          :     19.333u      1.017s      0.383w     10 calls
JKGrad: ABx                         :      7.200u      0.233s      0.141w     10 calls
JKGrad: Amnx                        :    475.833u     10.600s     11.190w     10 calls
Grad: XC                            :    741.733u      4.650s     14.227w     10 calls
V_xc gradient                       :    220.597p                          22099 calls
DFH: initialize()                   :     48.667u      3.333s      1.155w      2 calls
DFH: AO Construction                :      2.933u      0.200s      0.061w      4 calls
DFH: AO-Met. Contraction            :      3.900u      0.083s      0.075w      8 calls
DFH: wAO Construction               :      7.600u      0.167s      0.148w      4 calls
DFH: wAO Copy                       :      2.400u      0.083s      0.047w      4 calls

--------------------------------------------------------------------------------------
V: Grid                             :     81.850u      3.000s      1.779w     10 calls
| build grid                        :     31.967u      1.167s      0.672w     10 calls
| post-process grid                 :     49.700u      1.833s      1.104w     10 calls
DFH: sparsity prep                  :     49.167u      2.267s      1.028w     10 calls
| Libint2ERI::Libint2ERI            :     32.767u      1.433s      0.682w     10 calls
Libint2ERI::Libint2ERI              :     28.933u      1.133s      1.213w    272 calls
Libint2ErfERI::Libint2ErfERI        :      0.950u      0.017s      0.605w      8 calls
JK: (A|Q)^-1                        :     95.800u      8.800s      3.189w      8 calls
| Libint2ERI::Libint2ERI            :      0.050u      0.200s      0.076w    256 calls
JK: (A|mn)                          :     20.533u     10.867s      0.598w     10 calls
JK: (Q|mn)                          :    209.383u      6.550s      4.071w     10 calls
JK: (Q|mn) Write                    :     44.783u      3.483s      0.915w     10 calls
JK: (A|mn)^L                        :     20.983u     11.583s      0.638w     10 calls
JK: (Q|mn)^L                        :    218.383u      6.817s      4.254w     10 calls
JK: (Q|mn)^L Write                  :     44.300u      3.267s      0.904w     10 calls
JK: (Q|mn)^R                        :    149.900u    277.767s      8.115w     10 calls
JK: (Q|mn)^R Write                  :     78.717u      7.183s      2.302w     10 calls
HF: Form core H                     :     54.417u      1.933s      2.496w     10 calls
HF: Form S/X                        :     23.483u      0.950s      0.493w     10 calls
HF: Guess                           :     96.067u      7.000s      2.091w     10 calls
| SAD Guess                         :     94.700u      6.917s      2.064w     10 calls
HF: Form G                          :  13086.800u    255.917s    257.981w    133 calls
| UV: Form V                        :   8917.883u     24.017s    169.268w    133 calls
| | Properties                      :   2252.272p                         294657 calls
| | Functional                      :     37.155p                         294657 calls
| | V_xc                            :   3029.475p                         294657 calls
| JK: D                             :      3.017u      0.100s      0.064w    133 calls
| JK: USO2AO                        :      1.083u      0.017s      0.019w    133 calls
| JK: JK                            :   4139.317u    230.300s     88.106w    133 calls
| | JK: (Q|mn) Read                 :    819.233u     62.200s     16.898w    214 calls
| | JK: J                           :    234.250u      9.483s      6.834w    214 calls
| | | JK: J1                        :    109.250u      4.150s      3.075w    428 calls
| | | JK: J2                        :    114.467u      4.683s      3.501w    428 calls
| | JK: K                           :    524.767u      6.717s     10.370w    214 calls
| | | JK: K1                        :    350.300u      4.217s      6.993w    428 calls
| | | JK: K2                        :    171.350u      2.367s      3.352w    428 calls
| | JK: (Q|mn)^L Read               :    609.783u     46.967s     13.013w    348 calls
| | JK: (Q|mn)^R Read               :    602.750u     47.333s     13.011w    348 calls
| | JK: wK                          :    904.617u     32.567s     18.055w    348 calls
| | | JK: wK1                       :    705.050u     27.017s     14.200w   1392 calls
| | | JK: wK2                       :    190.750u      5.167s      3.807w    696 calls
| | DFH: compute_JK()               :     22.250u      0.450s      0.430w     26 calls
| | | DFH: Grabbing AOs             :      0.000u      0.000s      0.000w     26 calls
| | | DFH: compute_J                :      3.900u      0.267s      0.078w     26 calls
| | | DFH: compute_K                :     14.367u      0.017s      0.273w     26 calls
| | DFH: compute_wK()               :     40.017u      1.283s      0.782w     26 calls
| JK: AO2USO                        :      0.000u      0.000s      0.000w    133 calls
HF: Form F                          :      3.117u      0.133s      0.066w    133 calls
HF: Form D                          :      3.167u      0.083s      0.069w    133 calls
HF: DIIS                            :    359.350u     20.800s      7.236w    123 calls
HF: Form C                          :    469.967u     14.683s      9.256w    123 calls
Grad: V T Perturb                   :     59.217u      2.000s      1.173w     10 calls
Grad: S                             :     12.250u      0.583s      0.246w     10 calls
Grad: JK                            :   1158.033u     34.300s     46.866w     10 calls
| JKGrad: Amn                       :    228.083u     11.350s      5.734w     10 calls
| | Libint2ERI::Libint2ERI          :     35.750u      1.433s      0.710w     10 calls
| JKGrad: Awmn                      :    357.050u      8.567s     27.486w     10 calls
| | Libint2ErfERI::Libint2ErfERI    :    113.350u      3.667s     21.279w    320 calls
| JKGrad: AB                        :     59.883u      2.033s      1.165w     10 calls
| | Libint2ERI::Libint2ERI          :      2.933u      0.133s      0.057w    320 calls
| JKGrad: UV                        :     19.333u      1.017s      0.383w     10 calls
| JKGrad: ABx                       :      7.200u      0.233s      0.141w     10 calls
| | Libint2ERI::Libint2ERI          :      0.100u      0.000s      0.002w     10 calls
| JKGrad: Amnx                      :    475.833u     10.600s     11.190w     10 calls
| | Libint2ERI::Libint2ERI          :     35.350u      1.600s      0.695w     10 calls
| | Libint2ErfERI::Libint2ErfERI    :     29.583u      1.133s      0.677w     10 calls
Grad: XC                            :    741.733u      4.650s     14.227w     10 calls
| Properties                        :    182.628p                          22099 calls
| Functional                        :      3.078p                          22099 calls
| V_xc gradient                     :    220.597p                          22099 calls
DFH: initialize()                   :     48.667u      3.333s      1.155w      2 calls
| Libint2ERI::Libint2ERI            :      3.967u      0.167s      0.084w     66 calls
| Libint2ErfERI::Libint2ErfERI      :      2.983u      0.117s      0.061w      2 calls
| DFH: AO Construction              :      2.933u      0.200s      0.061w      4 calls
| DFH: AO-Met. Contraction          :      3.900u      0.083s      0.075w      8 calls
| DFH: wAO Construction             :      7.600u      0.167s      0.148w      4 calls
| DFH: wAO Copy                     :      2.400u      0.083s      0.047w      4 calls

**************************************************************************************

Host: germain

Timers On : Wed Nov 13 22:00:22 2024
Timers Off: Wed Nov 13 22:00:22 2024

Wall Time:        0.47 seconds

                                                       Time (seconds)
Module                                       User      System        Wall        Calls

--------------------------------------------------------------------------------------

**************************************************************************************

Host: germain

Timers On : Wed Nov 13 22:05:28 2024
Timers Off: Wed Nov 13 22:05:29 2024

Wall Time:        0.79 seconds

                                                       Time (seconds)
Module                                       User      System        Wall        Calls

--------------------------------------------------------------------------------------

**************************************************************************************

Host: germain

Timers On : Wed Nov 13 22:16:01 2024
Timers Off: Wed Nov 13 23:13:56 2024

Wall Time:     3475.08 seconds

                                                       Time (seconds)
Module                                       User      System        Wall        Calls
V: Grid                             :    738.067u     27.617s     15.115w    100 calls
build grid                          :    272.100u      8.383s      5.337w    100 calls
post-process grid                   :    464.700u     19.233s      9.757w    100 calls
DFH: sparsity prep                  :    429.583u     19.367s      9.300w    100 calls
Libint2ERI::Libint2ERI              :   1193.017u     52.933s     30.810w   9540 calls
Libint2ErfERI::Libint2ErfERI        :   1362.100u     47.767s    200.033w   3400 calls
JK: (A|Q)^-1                        :    943.017u     88.633s     33.724w     80 calls
JK: (A|mn)                          :    200.683u     89.783s      5.611w     91 calls
JK: (Q|mn)                          :   1839.950u     62.383s     36.394w     91 calls
JK: (Q|mn) Write                    :    415.217u     32.217s      8.700w     91 calls
JK: (A|mn)^L                        :    202.383u     94.550s      5.882w     91 calls
JK: (Q|mn)^L                        :   1897.883u     66.050s     37.559w     91 calls
JK: (Q|mn)^L Write                  :    432.983u     33.433s      8.925w     91 calls
JK: (Q|mn)^R                        :   1063.033u   3221.950s     81.559w     90 calls
JK: (Q|mn)^R Write                  :    721.350u     67.050s     21.812w     90 calls
HF: Form core H                     :    303.467u     11.900s      6.560w    100 calls
HF: Form S/X                        :    165.100u      5.267s      3.294w    100 calls
HF: Guess                           :    819.783u     70.417s     18.687w    100 calls
SAD Guess                           :    807.083u     69.850s     18.430w    100 calls
HF: Form G                          : 114806.167u   2312.967s   2294.296w   1275 calls
UV: Form V                          :  76824.767u    199.833s   1468.909w   1275 calls
Properties                          :  21686.447p                         2844219 calls
Functional                          :    385.073p                         2844219 calls
V_xc                                :  25717.157p                         2639750 calls
JK: D                               :     72.583u      3.633s      1.586w   1275 calls
JK: USO2AO                          :      9.217u      0.600s      0.166w   1275 calls
JK: JK                              :  37644.767u   2096.350s    818.200w   1275 calls
JK: (Q|mn) Read                     :   7904.200u    629.750s    174.161w   2105 calls
JK: J                               :   1640.183u     68.800s     56.334w   2105 calls
JK: J1                              :    773.850u     32.017s     25.853w   4210 calls
JK: J2                              :    778.117u     31.800s     28.108w   4210 calls
JK: K                               :   4821.217u     78.650s     99.417w   2105 calls
JK: K1                              :   3208.383u     47.600s     67.012w   4210 calls
JK: K2                              :   1585.367u     30.083s     32.180w   4210 calls
JK: (Q|mn)^L Read                   :   5658.833u    433.417s    117.728w   3280 calls
JK: (Q|mn)^R Read                   :   5653.200u    456.050s    127.207w   3280 calls
JK: wK                              :   8100.650u    186.617s    162.593w   3280 calls
JK: wK1                             :   6360.600u    149.233s    128.772w  13120 calls
JK: wK2                             :   1665.233u     34.567s     33.431w   6560 calls
DFH: compute_JK()                   :    151.067u      4.100s      2.978w    236 calls
DFH: Grabbing AOs                   :      0.050u      0.000s      0.001w    236 calls
DFH: compute_J                      :     37.700u      1.967s      0.772w    236 calls
DFH: compute_K                      :    100.433u      1.450s      1.957w    236 calls
DFH: compute_wK()                   :    239.433u      6.917s      4.703w    236 calls
JK: AO2USO                          :      0.450u      0.000s      0.011w   1275 calls
HF: Form F                          :     57.083u      2.983s      1.222w   1275 calls
HF: Form D                          :     26.550u      1.283s      0.572w   1275 calls
HF: DIIS                            :   3235.383u    192.517s     65.858w   1175 calls
HF: Form C                          :   4226.217u    140.067s     84.015w   1175 calls
Grad: V T Perturb                   :    267.800u     10.183s      5.332w    100 calls
Grad: S                             :    125.617u      4.050s      2.516w    100 calls
Grad: JK                            :  10512.117u    399.583s    431.133w    100 calls
JKGrad: Amn                         :   2103.550u    132.500s     55.253w    100 calls
JKGrad: Awmn                        :   3084.000u    104.033s    246.275w    100 calls
JKGrad: AB                          :    613.150u     22.800s     12.159w    100 calls
JKGrad: UV                          :    176.567u      9.800s      3.550w    100 calls
JKGrad: ABx                         :     63.650u      2.450s      1.267w    100 calls
JKGrad: Amnx                        :   4391.483u    123.617s    109.916w    100 calls
Grad: XC                            :   6545.633u     45.533s    126.828w    100 calls
V_xc gradient                       :   1947.526p                         204469 calls
DFH: initialize()                   :    335.117u     20.933s      7.086w     20 calls
DFH: AO Construction                :     18.567u      1.133s      0.393w     36 calls
DFH: AO-Met. Contraction            :     27.033u      0.367s      0.531w     72 calls
DFH: wAO Construction               :     53.100u      0.833s      1.030w     36 calls
DFH: wAO Copy                       :     17.017u      2.217s      0.370w     36 calls

--------------------------------------------------------------------------------------
V: Grid                             :    738.067u     27.617s     15.115w    100 calls
| build grid                        :    272.100u      8.383s      5.337w    100 calls
| post-process grid                 :    464.700u     19.233s      9.757w    100 calls
DFH: sparsity prep                  :    429.583u     19.367s      9.300w    100 calls
| Libint2ERI::Libint2ERI            :    283.567u     13.367s      6.198w    100 calls
Libint2ERI::Libint2ERI              :    260.167u     11.167s     10.815w   2720 calls
Libint2ErfERI::Libint2ErfERI        :     34.583u      1.283s      5.561w     80 calls
JK: (A|Q)^-1                        :    943.017u     88.633s     33.724w     80 calls
| Libint2ERI::Libint2ERI            :      0.667u      1.567s      0.781w   2560 calls
JK: (A|mn)                          :    200.683u     89.783s      5.611w     91 calls
JK: (Q|mn)                          :   1839.950u     62.383s     36.394w     91 calls
JK: (Q|mn) Write                    :    415.217u     32.217s      8.700w     91 calls
JK: (A|mn)^L                        :    202.383u     94.550s      5.882w     91 calls
JK: (Q|mn)^L                        :   1897.883u     66.050s     37.559w     91 calls
JK: (Q|mn)^L Write                  :    432.983u     33.433s      8.925w     91 calls
JK: (Q|mn)^R                        :   1063.033u   3221.950s     81.559w     90 calls
JK: (Q|mn)^R Write                  :    721.350u     67.050s     21.812w     90 calls
HF: Form core H                     :    303.467u     11.900s      6.560w    100 calls
HF: Form S/X                        :    165.100u      5.267s      3.294w    100 calls
HF: Guess                           :    819.783u     70.417s     18.687w    100 calls
| SAD Guess                         :    807.083u     69.850s     18.430w    100 calls
HF: Form G                          : 114806.167u   2312.967s   2294.296w   1275 calls
| UV: Form V                        :  76824.767u    199.833s   1468.909w   1275 calls
| | Properties                      :  20076.795p                         2639750 calls
| | Functional                      :    354.806p                         2639750 calls
| | V_xc                            :  25717.157p                         2639750 calls
| JK: D                             :     72.583u      3.633s      1.586w   1275 calls
| JK: USO2AO                        :      9.217u      0.600s      0.166w   1275 calls
| JK: JK                            :  37644.767u   2096.350s    818.200w   1275 calls
| | JK: (Q|mn) Read                 :   7904.200u    629.750s    174.161w   2105 calls
| | JK: J                           :   1640.183u     68.800s     56.334w   2105 calls
| | | JK: J1                        :    773.850u     32.017s     25.853w   4210 calls
| | | JK: J2                        :    778.117u     31.800s     28.108w   4210 calls
| | JK: K                           :   4821.217u     78.650s     99.417w   2105 calls
| | | JK: K1                        :   3208.383u     47.600s     67.012w   4210 calls
| | | JK: K2                        :   1585.367u     30.083s     32.180w   4210 calls
| | JK: (Q|mn)^L Read               :   5658.833u    433.417s    117.728w   3280 calls
| | JK: (Q|mn)^R Read               :   5653.200u    456.050s    127.207w   3280 calls
| | JK: wK                          :   8100.650u    186.617s    162.593w   3280 calls
| | | JK: wK1                       :   6360.600u    149.233s    128.772w  13120 calls
| | | JK: wK2                       :   1665.233u     34.567s     33.431w   6560 calls
| | DFH: compute_JK()               :    151.067u      4.100s      2.978w    236 calls
| | | DFH: Grabbing AOs             :      0.050u      0.000s      0.001w    236 calls
| | | DFH: compute_J                :     37.700u      1.967s      0.772w    236 calls
| | | DFH: compute_K                :    100.433u      1.450s      1.957w    236 calls
| | DFH: compute_wK()               :    239.433u      6.917s      4.703w    236 calls
| JK: AO2USO                        :      0.450u      0.000s      0.011w   1275 calls
HF: Form F                          :     57.083u      2.983s      1.222w   1275 calls
HF: Form D                          :     26.550u      1.283s      0.572w   1275 calls
HF: DIIS                            :   3235.383u    192.517s     65.858w   1175 calls
HF: Form C                          :   4226.217u    140.067s     84.015w   1175 calls
Grad: V T Perturb                   :    267.800u     10.183s      5.332w    100 calls
Grad: S                             :    125.617u      4.050s      2.516w    100 calls
Grad: JK                            :  10512.117u    399.583s    431.133w    100 calls
| JKGrad: Amn                       :   2103.550u    132.500s     55.253w    100 calls
| | Libint2ERI::Libint2ERI          :    300.183u     11.833s      6.063w    100 calls
| JKGrad: Awmn                      :   3084.000u    104.033s    246.275w    100 calls
| | Libint2ErfERI::Libint2ErfERI    :   1027.083u     33.833s    187.974w   3200 calls
| JKGrad: AB                        :    613.150u     22.800s     12.159w    100 calls
| | Libint2ERI::Libint2ERI          :     26.083u      1.483s      0.529w   3200 calls
| JKGrad: UV                        :    176.567u      9.800s      3.550w    100 calls
| JKGrad: ABx                       :     63.650u      2.450s      1.267w    100 calls
| | Libint2ERI::Libint2ERI          :      1.067u      0.050s      0.024w    100 calls
| JKGrad: Amnx                      :   4391.483u    123.617s    109.916w    100 calls
| | Libint2ERI::Libint2ERI          :    293.850u     12.333s      5.851w    100 calls
| | Libint2ErfERI::Libint2ErfERI    :    280.600u     11.767s      6.103w    100 calls
Grad: XC                            :   6545.633u     45.533s    126.828w    100 calls
| Properties                        :   1609.652p                         204469 calls
| Functional                        :     30.267p                         204469 calls
| V_xc gradient                     :   1947.526p                         204469 calls
DFH: initialize()                   :    335.117u     20.933s      7.086w     20 calls
| Libint2ERI::Libint2ERI            :     27.433u      1.133s      0.549w    660 calls
| Libint2ErfERI::Libint2ErfERI      :     19.833u      0.883s      0.395w     20 calls
| DFH: AO Construction              :     18.567u      1.133s      0.393w     36 calls
| DFH: AO-Met. Contraction          :     27.033u      0.367s      0.531w     72 calls
| DFH: wAO Construction             :     53.100u      0.833s      1.030w     36 calls
| DFH: wAO Copy                     :     17.017u      2.217s      0.370w     36 calls

**************************************************************************************

Host: germain

Timers On : Wed Nov 13 23:20:49 2024
Timers Off: Thu Nov 14 00:18:52 2024

Wall Time:     3483.48 seconds

                                                       Time (seconds)
Module                                       User      System        Wall        Calls
V: Grid                             :    734.733u     28.400s     15.210w    100 calls
build grid                          :    273.150u      8.533s      5.404w    100 calls
post-process grid                   :    460.350u     19.800s      9.783w    100 calls
DFH: sparsity prep                  :    427.450u     19.650s      9.389w    100 calls
Libint2ERI::Libint2ERI              :   1201.733u     52.667s     31.182w   9540 calls
Libint2ErfERI::Libint2ErfERI        :   1381.367u     48.267s    200.154w   3400 calls
JK: (A|Q)^-1                        :    944.917u     88.300s     34.007w     80 calls
JK: (A|mn)                          :    196.150u    105.083s      5.860w     91 calls
JK: (Q|mn)                          :   2031.717u     69.767s     40.546w     91 calls
JK: (Q|mn) Write                    :    420.350u     32.650s      8.861w     91 calls
JK: (A|mn)^L                        :    199.383u    105.267s      5.930w     91 calls
JK: (Q|mn)^L                        :   1928.750u     64.083s     38.186w     91 calls
JK: (Q|mn)^L Write                  :    426.200u     31.833s      8.802w     91 calls
JK: (Q|mn)^R                        :   1782.633u   2131.683s     74.470w     91 calls
[...]
DFH: AO-Met. Contraction            :     27.250u      1.017s      0.540w     72 calls
DFH: wAO Construction               :     72.150u      1.167s      1.395w     36 calls
DFH: wAO Copy                       :     14.733u      0.650s      0.296w     36 calls

--------------------------------------------------------------------------------------
V: Grid                             :    734.733u     28.400s     15.210w    100 calls
| build grid                        :    273.150u      8.533s      5.404w    100 calls
| post-process grid                 :    460.350u     19.800s      9.783w    100 calls
DFH: sparsity prep                  :    427.450u     19.650s      9.389w    100 calls
| Libint2ERI::Libint2ERI            :    282.633u     13.167s      6.319w    100 calls
Libint2ERI::Libint2ERI              :    271.633u     11.717s     11.174w   2720 calls
Libint2ErfERI::Libint2ErfERI        :     28.617u      0.867s      5.397w     80 calls
JK: (A|Q)^-1                        :    944.917u     88.300s     34.007w     80 calls
| Libint2ERI::Libint2ERI            :      0.550u      1.633s      0.735w   2560 calls
JK: (A|mn)                          :    196.150u    105.083s      5.860w     91 calls
JK: (Q|mn)                          :   2031.717u     69.767s     40.546w     91 calls
JK: (Q|mn) Write                    :    420.350u     32.650s      8.861w     91 calls
JK: (A|mn)^L                        :    199.383u    105.267s      5.930w     91 calls
JK: (Q|mn)^L                        :   1928.750u     64.083s     38.186w     91 calls
JK: (Q|mn)^L Write                  :    426.200u     31.833s      8.802w     91 calls
JK: (Q|mn)^R                        :   1782.633u   2131.683s     74.470w     91 calls
JK: (Q|mn)^R Write                  :    710.067u     63.950s     20.494w     91 calls
HF: Form core H                     :    282.717u     10.767s      6.023w    100 calls
HF: Form S/X                        :    191.200u      6.367s      3.877w    100 calls
HF: Guess                           :    794.367u     72.900s     18.066w    100 calls
| SAD Guess                         :    782.233u     72.283s     17.821w    100 calls
HF: Form G                          : 114475.167u   2308.483s   2279.910w   1275 calls
| UV: Form V                        :  76957.767u    187.350s   1470.805w   1275 calls
| | Properties                      :  20096.185p                         2641367 calls
| | Functional                      :    350.806p                         2641367 calls
| | V_xc                            :  25762.670p                         2641367 calls
| JK: D                             :     78.917u      3.483s      1.742w   1275 calls
| JK: USO2AO                        :      8.550u      0.467s      0.155w   1275 calls
| JK: JK                            :  37171.500u   2104.283s    801.721w   1275 calls
| | JK: (Q|mn) Read                 :   7817.333u    615.500s    170.288w   2105 calls
| | JK: J                           :   1688.100u     71.383s     57.195w   2105 calls
| | | JK: J1                        :    799.633u     34.283s     26.219w   4210 calls
| | | JK: J2                        :    797.767u     32.500s     28.586w   4210 calls
| | JK: K                           :   4910.050u     98.983s    101.996w   2105 calls
| | | JK: K1                        :   3262.983u     66.667s     68.840w   4210 calls
| | | JK: K2                        :   1618.817u     31.417s     32.936w   4210 calls
| | JK: (Q|mn)^L Read               :   5707.117u    436.667s    118.369w   3280 calls
| | JK: (Q|mn)^R Read               :   5538.750u    434.917s    121.017w   3280 calls
| | JK: wK                          :   8108.967u    229.200s    162.761w   3280 calls
| | | JK: wK1                       :   6385.567u    192.967s    129.427w  13120 calls
| | | JK: wK2                       :   1648.883u     33.967s     32.931w   6560 calls
| | DFH: compute_JK()               :    133.417u      3.033s      2.594w    236 calls
| | | DFH: Grabbing AOs             :      0.033u      0.000s      0.001w    236 calls
| | | DFH: compute_J                :     29.783u      1.200s      0.595w    236 calls
| | | DFH: compute_K                :     90.767u      0.917s      1.758w    236 calls
| | DFH: compute_wK()               :    239.433u      6.300s      4.675w    236 calls
| JK: AO2USO                        :      0.650u      0.050s      0.015w   1275 calls
HF: Form F                          :     58.467u      2.317s      1.223w   1275 calls
HF: Form D                          :     38.200u      1.667s      0.836w   1275 calls
HF: DIIS                            :   3144.433u    168.133s     63.434w   1175 calls
HF: Form C                          :   4189.017u    131.433s     82.941w   1175 calls
Grad: V T Perturb                   :    253.150u      8.717s      4.999w    100 calls
Grad: S                             :    114.617u      4.183s      2.267w    100 calls
Grad: JK                            :  12260.900u    395.500s    460.185w    100 calls
| JKGrad: Amn                       :   2061.783u    119.217s     53.396w    100 calls
| | Libint2ERI::Libint2ERI          :    295.983u     11.917s      5.931w    100 calls
| JKGrad: Awmn                      :   3766.550u    121.850s    257.635w    100 calls
| | Libint2ErfERI::Libint2ErfERI    :   1055.933u     34.567s    188.198w   3200 calls
| JKGrad: AB                        :    636.250u     22.933s     12.693w    100 calls
| | Libint2ERI::Libint2ERI          :     23.867u      1.167s      0.484w   3200 calls
| JKGrad: UV                        :    174.633u      9.900s      3.510w    100 calls
| JKGrad: ABx                       :     65.233u      2.700s      1.301w    100 calls
| | Libint2ERI::Libint2ERI          :      1.133u      0.083s      0.022w    100 calls
| JKGrad: Amnx                      :   5468.950u    114.733s    128.476w    100 calls
| | Libint2ERI::Libint2ERI          :    298.667u     11.733s      5.945w    100 calls
| | Libint2ErfERI::Libint2ErfERI    :    277.367u     11.833s      6.166w    100 calls
Grad: XC                            :   6589.533u     41.233s    127.100w    100 calls
| Properties                        :   1635.353p                         204595 calls
| Functional                        :     30.494p                         204595 calls
| V_xc gradient                     :   1982.863p                         204595 calls
DFH: initialize()                   :    351.817u     22.217s      7.401w     20 calls
| Libint2ERI::Libint2ERI            :     27.267u      1.250s      0.572w    660 calls
| Libint2ErfERI::Libint2ErfERI      :     19.450u      1.000s      0.394w     20 calls
| DFH: AO Construction              :     21.517u      1.450s      0.453w     36 calls
| DFH: AO-Met. Contraction          :     27.250u      1.017s      0.540w     72 calls
| DFH: wAO Construction             :     72.150u      1.167s      1.395w     36 calls
| DFH: wAO Copy                     :     14.733u      0.650s      0.296w     36 calls

**************************************************************************************

Host: germain

Timers On : Thu Nov 14 00:22:20 2024
Timers Off: Thu Nov 14 01:21:36 2024

Wall Time:     3556.25 seconds

                                                       Time (seconds)
Module                                       User      System        Wall        Calls
V: Grid                             :    721.917u     27.483s     15.030w    100 calls
build grid                          :    262.517u      7.650s      5.225w    100 calls
post-process grid                   :    458.333u     19.750s      9.784w    100 calls
DFH: sparsity prep                  :    420.617u     18.550s      9.040w    100 calls
Libint2ERI::Libint2ERI              :   1203.767u     52.100s     30.363w   9540 calls
Libint2ErfERI::Libint2ErfERI        :   1366.000u     45.767s    198.688w   3400 calls
JK: (A|Q)^-1                        :    895.200u     85.567s     32.877w     80 calls
JK: (A|mn)                          :    200.683u    117.817s      6.284w     91 calls
JK: (Q|mn)                          :   2386.583u     86.183s     47.830w     91 calls
JK: (Q|mn) Write                    :    412.700u     31.767s      8.692w     91 calls
JK: (A|mn)^L                        :    189.317u    122.833s      6.099w     91 calls
JK: (Q|mn)^L                        :   2348.067u     81.067s     46.898w     91 calls
JK: (Q|mn)^L Write                  :    423.383u     31.867s      8.837w     91 calls
JK: (Q|mn)^R                        :   2116.300u   2343.183s     85.399w     91 calls
JK: (Q|mn)^R Write                  :    700.683u     63.483s     21.355w     91 calls
HF: Form core H                     :    320.383u     12.917s      6.858w    100 calls
HF: Form S/X                        :    185.400u      5.683s      3.706w    100 calls
HF: Guess                           :    914.000u     88.333s     21.220w    100 calls
SAD Guess                           :    899.933u     87.533s     20.937w    100 calls
HF: Form G                          : 114389.400u   2326.167s   2284.157w   1277 calls
UV: Form V                          :  75137.467u    190.533s   1446.465w   1277 calls
Properties                          :  19753.188p                         2851203 calls
Functional                          :    358.728p                         2851203 calls
V_xc                                :  26703.811p                         2646614 calls
JK: D                               :     77.150u      3.400s      1.712w   1277 calls
JK: USO2AO                          :      8.300u      0.267s      0.155w   1277 calls
JK: JK                              :  38820.733u   2116.333s    828.315w   1277 calls
JK: (Q|mn) Read                     :   7905.550u    614.950s    170.059w   2109 calls
JK: J                               :   1723.533u     71.767s     55.037w   2109 calls
JK: J1                              :    809.300u     33.300s     24.950w   4218 calls
JK: J2                              :    820.083u     33.483s     27.647w   4218 calls
JK: K                               :   4925.200u    113.867s    103.397w   2109 calls
JK: K1                              :   3280.383u     80.067s     69.862w   4218 calls
JK: K2                              :   1617.283u     32.950s     33.264w   4218 calls
JK: (Q|mn)^L Read                   :   6341.167u    479.650s    130.730w   3286 calls
JK: (Q|mn)^R Read                   :   6136.067u    477.583s    132.237w   3286 calls
JK: wK                              :   8435.717u    144.267s    168.701w   3286 calls
JK: wK1                             :   6646.467u    105.500s    133.415w  13144 calls
JK: wK2                             :   1722.117u     36.500s     34.798w   6572 calls
DFH: compute_JK()                   :    131.433u      2.983s      2.568w    236 calls
DFH: Grabbing AOs                   :      0.050u      0.000s      0.001w    236 calls
DFH: compute_J                      :     25.050u      0.983s      0.495w    236 calls
DFH: compute_K                      :     93.950u      1.333s      1.835w    236 calls
DFH: compute_wK()                   :    268.983u      6.433s      5.330w    236 calls
JK: AO2USO                          :      0.617u      0.017s      0.012w   1277 calls
HF: Form F                          :     51.100u      2.067s      1.087w   1277 calls
HF: Form D                          :     42.900u      1.917s      0.902w   1277 calls
HF: DIIS                            :   3648.167u    195.650s     74.522w   1177 calls
HF: Form C                          :   4988.000u    163.067s     99.294w   1177 calls
Grad: V T Perturb                   :    285.750u     10.100s      5.704w    100 calls
Grad: S                             :    123.450u      4.067s      2.462w    100 calls
Grad: JK                            :  13316.750u    401.567s    480.004w    100 calls
JKGrad: Amn                         :   2258.117u    132.983s     57.540w    100 calls
JKGrad: Awmn                        :   4207.383u     87.383s    265.453w    100 calls
JKGrad: AB                          :    710.567u     25.467s     14.151w    100 calls
JKGrad: UV                          :    197.200u     11.800s      3.980w    100 calls
JKGrad: ABx                         :     67.567u      2.817s      1.350w    100 calls
JKGrad: Amnx                        :   5840.300u    138.783s    136.799w    100 calls
Grad: XC                            :   5865.000u     42.800s    114.026w    100 calls
V_xc gradient                       :   1745.073p                         204589 calls
DFH: initialize()                   :    381.717u     24.100s      8.246w     20 calls
DFH: AO Construction                :     19.483u      1.483s      0.411w     36 calls
DFH: AO-Met. Contraction            :     30.067u      0.767s      0.612w     72 calls
DFH: wAO Construction               :     84.683u      1.333s      1.676w     36 calls
DFH: wAO Copy                       :     19.350u      0.800s      0.409w     36 calls

--------------------------------------------------------------------------------------
V: Grid                             :    721.917u     27.483s     15.030w    100 calls
| build grid                        :    262.517u      7.650s      5.225w    100 calls
| post-process grid                 :    458.333u     19.750s      9.784w    100 calls
DFH: sparsity prep                  :    420.617u     18.550s      9.040w    100 calls
| Libint2ERI::Libint2ERI            :    278.683u     12.583s      6.033w    100 calls
Libint2ERI::Libint2ERI              :    284.083u     12.017s     10.907w   2720 calls
Libint2ErfERI::Libint2ErfERI        :     32.200u      1.133s      5.480w     80 calls
JK: (A|Q)^-1                        :    895.200u     85.567s     32.877w     80 calls
| Libint2ERI::Libint2ERI            :      0.483u      1.483s      0.661w   2560 calls
JK: (A|mn)                          :    200.683u    117.817s      6.284w     91 calls
JK: (Q|mn)                          :   2386.583u     86.183s     47.830w     91 calls
JK: (Q|mn) Write                    :    412.700u     31.767s      8.692w     91 calls
JK: (A|mn)^L                        :    189.317u    122.833s      6.099w     91 calls
JK: (Q|mn)^L                        :   2348.067u     81.067s     46.898w     91 calls
JK: (Q|mn)^L Write                  :    423.383u     31.867s      8.837w     91 calls
JK: (Q|mn)^R                        :   2116.300u   2343.183s     85.399w     91 calls
JK: (Q|mn)^R Write                  :    700.683u     63.483s     21.355w     91 calls
HF: Form core H                     :    320.383u     12.917s      6.858w    100 calls
HF: Form S/X                        :    185.400u      5.683s      3.706w    100 calls
HF: Guess                           :    914.000u     88.333s     21.220w    100 calls
| SAD Guess                         :    899.933u     87.533s     20.937w    100 calls
HF: Form G                          : 114389.400u   2326.167s   2284.157w   1277 calls
| UV: Form V                        :  75137.467u    190.533s   1446.465w   1277 calls
| | Properties                      :  18304.381p                         2646614 calls
| | Functional                      :    332.053p                         2646614 calls
| | V_xc                            :  26703.811p                         2646614 calls
| JK: D                             :     77.150u      3.400s      1.712w   1277 calls
| JK: USO2AO                        :      8.300u      0.267s      0.155w   1277 calls
| JK: JK                            :  38820.733u   2116.333s    828.315w   1277 calls
| | JK: (Q|mn) Read                 :   7905.550u    614.950s    170.059w   2109 calls
| | JK: J                           :   1723.533u     71.767s     55.037w   2109 calls
| | | JK: J1                        :    809.300u     33.300s     24.950w   4218 calls
| | | JK: J2                        :    820.083u     33.483s     27.647w   4218 calls
| | JK: K                           :   4925.200u    113.867s    103.397w   2109 calls
| | | JK: K1                        :   3280.383u     80.067s     69.862w   4218 calls
| | | JK: K2                        :   1617.283u     32.950s     33.264w   4218 calls
| | JK: (Q|mn)^L Read               :   6341.167u    479.650s    130.730w   3286 calls
| | JK: (Q|mn)^R Read               :   6136.067u    477.583s    132.237w   3286 calls
| | JK: wK                          :   8435.717u    144.267s    168.701w   3286 calls
| | | JK: wK1                       :   6646.467u    105.500s    133.415w  13144 calls
| | | JK: wK2                       :   1722.117u     36.500s     34.798w   6572 calls
| | DFH: compute_JK()               :    131.433u      2.983s      2.568w    236 calls
| | | DFH: Grabbing AOs             :      0.050u      0.000s      0.001w    236 calls
| | | DFH: compute_J                :     25.050u      0.983s      0.495w    236 calls
| | | DFH: compute_K                :     93.950u      1.333s      1.835w    236 calls
| | DFH: compute_wK()               :    268.983u      6.433s      5.330w    236 calls
| JK: AO2USO                        :      0.617u      0.017s      0.012w   1277 calls
HF: Form F                          :     51.100u      2.067s      1.087w   1277 calls
HF: Form D                          :     42.900u      1.917s      0.902w   1277 calls
HF: DIIS                            :   3648.167u    195.650s     74.522w   1177 calls
HF: Form C                          :   4988.000u    163.067s     99.294w   1177 calls
Grad: V T Perturb                   :    285.750u     10.100s      5.704w    100 calls
Grad: S                             :    123.450u      4.067s      2.462w    100 calls
Grad: JK                            :  13316.750u    401.567s    480.004w    100 calls
| JKGrad: Amn                       :   2258.117u    132.983s     57.540w    100 calls
| | Libint2ERI::Libint2ERI          :    301.700u     12.417s      5.987w    100 calls
| JKGrad: Awmn                      :   4207.383u     87.383s    265.453w    100 calls
| | Libint2ErfERI::Libint2ErfERI    :   1038.233u     32.767s    186.896w   3200 calls
| JKGrad: AB                        :    710.567u     25.467s     14.151w    100 calls
| | Libint2ERI::Libint2ERI          :     23.533u      1.217s      0.476w   3200 calls
| JKGrad: UV                        :    197.200u     11.800s      3.980w    100 calls
| JKGrad: ABx                       :     67.567u      2.817s      1.350w    100 calls
| | Libint2ERI::Libint2ERI          :      1.383u      0.033s      0.025w    100 calls
| JKGrad: Amnx                      :   5840.300u    138.783s    136.799w    100 calls
| | Libint2ERI::Libint2ERI          :    289.417u     11.267s      5.773w    100 calls
| | Libint2ErfERI::Libint2ErfERI    :    277.533u     11.100s      5.948w    100 calls
Grad: XC                            :   5865.000u     42.800s    114.026w    100 calls
| Properties                        :   1448.807p                         204589 calls
| Functional                        :     26.675p                         204589 calls
| V_xc gradient                     :   1745.073p                         204589 calls
DFH: initialize()                   :    381.717u     24.100s      8.246w     20 calls
| Libint2ERI::Libint2ERI            :     24.483u      1.083s      0.503w    660 calls
| Libint2ErfERI::Libint2ErfERI      :     18.033u      0.767s      0.364w     20 calls
| DFH: AO Construction              :     19.483u      1.483s      0.411w     36 calls
| DFH: AO-Met. Contraction          :     30.067u      0.767s      0.612w     72 calls
| DFH: wAO Construction             :     84.683u      1.333s      1.676w     36 calls
| DFH: wAO Copy                     :     19.350u      0.800s      0.409w     36 calls

**************************************************************************************
